LAMMPS data file via write_data, version Version LIGGGHTS-PUBLIC 3.1.0, compiled 2015-04-27-15:32:54 by simulation, git commit b3030a8fd1f722c77f69150c7b2d24b386eab848 based on LAMMPS 23 Nov 2013, timestep = 100000

1000 atoms
1 atom types

-5.0000000000000003e-02 5.0000000000000003e-02 xlo xhi
0.0000000000000000e+00 2.9999999999999999e-01 ylo yhi
-5.0000000000000003e-02 5.0000000000000003e-02 zlo zhi

Atoms

82 1 1.0000000000000000e-02 1.0109999999999999e+00 -9.2164504687239947e-03 3.6639909720649108e-02 -4.1736991041262619e-02 0 0 0
41 1 1.0000000000000000e-02 1.0109999999999999e+00 -2.3412369087810695e-02 6.0402189772462436e-02 -4.2239631224679004e-02 0 0 0
7 1 1.0000000000000000e-02 1.0109999999999999e+00 -7.4943624431196123e-03 6.6634781384742645e-02 -4.0312998233197991e-02 0 0 0
81 1 1.0000000000000000e-02 1.0109999999999999e+00 -1.1626063114092625e-02 8.0894459571908564e-02 -4.1556953456284330e-02 0 0 0
6 1 1.0000000000000000e-02 1.0109999999999999e+00 -3.7931331593883462e-02 9.0157822691600581e-02 -4.2885817119563532e-02 0 0 0
80 1 1.0000000000000000e-02 1.0109999999999999e+00 -3.5291676179877461e-02 1.3154701542731092e-02 -3.4563954612912832e-02 0 0 0
66 1 1.0000000000000000e-02 1.0109999999999999e+00 -3.8228728577160906e-02 2.4131453142365488e-02 -3.6669963536832564e-02 0 0 0
13 1 1.0000000000000000e-02 1.0109999999999999e+00 -2.3289307642151921e-02 2.5490668939347910e-02 -3.5378287036138788e-02 0 0 0
64 1 1.0000000000000000e-02 1.0109999999999999e+00 -1.4763605332099290e-02 2.1814449430386927e-02 -3.1477305432371670e-02 0 0 0
62 1 1.0000000000000000e-02 1.0109999999999999e+00 -3.1215971946640574e-02 3.4016925168432667e-02 -3.7717559655766918e-02 0 0 0
57 1 1.0000000000000000e-02 1.0109999999999999e+00 -2.0531460149461153e-02 3.8091096523260280e-02 -3.8052616155730849e-02 0 0 0
56 1 1.0000000000000000e-02 1.0109999999999999e+00 -3.1855911824663997e-02 4.7653813069138462e-02 -3.0384589714622386e-02 0 0 0
60 1 1.0000000000000000e-02 1.0109999999999999e+00 -3.7449011906613920e-02 4.4458130545284073e-02 -3.8124283611084608e-02 0 0 0
23 1 1.0000000000000000e-02 1.0109999999999999e+00 -2.9297478829675656e-02 5.5796766485484206e-02 -3.5594724313287932e-02 0 0 0
9 1 1.0000000000000000e-02 1.0109999999999999e+00 -1.7390519801064316e-02 6.7939961875440200e-02 -3.9609232281282387e-02 0 0 0
14 1 1.0000000000000000e-02 1.0109999999999999e+00 -3.1969432629356212e-02 7.1549575647366692e-02 -3.2191068898580991e-02 0 0 0
53 1 1.0000000000000000e-02 1.0109999999999999e+00 -4.3696943152394618e-04 7.7301747013981223e-02 -3.9774501024264691e-02 0 0 0
86 1 1.0000000000000000e-02 1.0109999999999999e+00 -6.0452081735403026e-03 7.2405491293416502e-02 -3.2275688021148850e-02 0 0 0
83 1 1.0000000000000000e-02 1.0109999999999999e+00 -2.5977522376542168e-02 8.8948208889742558e-02 -3.5714793188133961e-02 0 0 0
17 1 1.0000000000000000e-02 1.0109999999999999e+00 -5.9598712825811966e-03 8.2607473140886734e-02 -3.2471488563385817e-02 0 0 0
61 1 1.0000000000000000e-02 1.0109999999999999e+00 -1.5965571498209652e-02 9.2314495256952678e-02 -3.1357341056325795e-02 0 0 0
67 1 1.0000000000000000e-02 1.0109999999999999e+00 -4.5068716276464001e-03 9.4564773785282275e-03 -2.2386684214722681e-02 0 0 0
96 1 1.0000000000000000e-02 1.0109999999999999e+00 -3.8948174472968874e-02 1.3166275308511541e-02 -2.5045899389420558e-02 0 0 0
71 1 1.0000000000000000e-02 1.0109999999999999e+00 -2.1493415972913345e-02 1.0571819264708003e-02 -2.8809273945544507e-02 0 0 0
19 1 1.0000000000000000e-02 1.0109999999999999e+00 -3.5888109830265899e-02 2.2632814478104429e-02 -2.6836365612844519e-02 0 0 0
73 1 1.0000000000000000e-02 1.0109999999999999e+00 -1.5173579465323977e-02 2.8888080736901224e-02 -2.4420732079561719e-02 0 0 0
85 1 1.0000000000000000e-02 1.0109999999999999e+00 -1.1778808576883223e-03 2.2167040017511248e-02 -2.8567841569226163e-02 0 0 0
92 1 1.0000000000000000e-02 1.0109999999999999e+00 -4.1564659212087463e-02 3.3703558208533789e-02 -2.7455725975533193e-02 0 0 0
25 1 1.0000000000000000e-02 1.0109999999999999e+00 -3.0186257264374225e-02 3.2142557800612724e-02 -2.7818920138437422e-02 0 0 0
10 1 1.0000000000000000e-02 1.0109999999999999e+00 -2.1040040452178391e-02 3.6986441013875930e-02 -2.4440072537137571e-02 0 0 0
24 1 1.0000000000000000e-02 1.0109999999999999e+00 -1.0326825182074497e-02 3.8267636166706906e-02 -2.8105930265931608e-02 0 0 0
84 1 1.0000000000000000e-02 1.0109999999999999e+00 -3.9506533217919479e-04 3.7324759019351235e-02 -2.8792281358723661e-02 0 0 0
29 1 1.0000000000000000e-02 1.0109999999999999e+00 -3.9177612640030293e-02 4.4728806073532794e-02 -2.3607431952189971e-02 0 0 0
78 1 1.0000000000000000e-02 1.0109999999999999e+00 -2.9526923213782440e-02 4.2605846508554236e-02 -2.2072424964092736e-02 0 0 0
34 1 1.0000000000000000e-02 1.0109999999999999e+00 -1.9216756911613155e-02 4.6728718623969906e-02 -2.3112525112046006e-02 0 0 0
87 1 1.0000000000000000e-02 1.0109999999999999e+00 -3.0678724499820242e-02 5.2519253806534542e-02 -2.1442194866924287e-02 0 0 0
72 1 1.0000000000000000e-02 1.0109999999999999e+00 -2.3010787149655439e-02 5.5020820276962465e-02 -2.7353595364965799e-02 0 0 0
44 1 1.0000000000000000e-02 1.0109999999999999e+00 -1.2793153706790118e-02 5.4121896130375456e-02 -2.5131586669505903e-02 0 0 0
39 1 1.0000000000000000e-02 1.0109999999999999e+00 -4.5289477072100060e-03 5.8055906446793488e-02 -2.9159701155686071e-02 0 0 0
40 1 1.0000000000000000e-02 1.0109999999999999e+00 -3.9694525822854848e-02 6.1128795384955033e-02 -2.5747852430561491e-02 0 0 0
63 1 1.0000000000000000e-02 1.0109999999999999e+00 -2.9555560181627256e-02 6.5190287566398830e-02 -2.4860822140311229e-02 0 0 0
5 1 1.0000000000000000e-02 1.0109999999999999e+00 -1.5973075085027100e-02 6.2612299839803098e-02 -2.9350615870168899e-02 0 0 0
20 1 1.0000000000000000e-02 1.0109999999999999e+00 -9.0894698945772831e-03 6.7578717066348062e-02 -2.4063887491567376e-02 0 0 0
15 1 1.0000000000000000e-02 1.0109999999999999e+00 -3.7090590483085530e-02 7.6865846583091577e-02 -2.2266614615110036e-02 0 0 0
48 1 1.0000000000000000e-02 1.0109999999999999e+00 -2.2310982246424318e-02 7.0327328779418413e-02 -2.9906283520694750e-02 0 0 0
16 1 1.0000000000000000e-02 1.0109999999999999e+00 -1.0906085635521472e-02 7.7029538931201513e-02 -2.1347193117881295e-02 0 0 0
32 1 1.0000000000000000e-02 1.0109999999999999e+00 -1.9523130204605766e-02 7.1909653902708107e-02 -2.0434035366312546e-02 0 0 0
69 1 1.0000000000000000e-02 1.0109999999999999e+00 -1.5999557994437138e-02 8.1476917406309829e-02 -2.8714481671045771e-02 0 0 0
58 1 1.0000000000000000e-02 1.0109999999999999e+00 -9.5575114782975035e-03 8.6925542089483193e-02 -2.2425427337083637e-02 0 0 0
38 1 1.0000000000000000e-02 1.0109999999999999e+00 -3.7499594538239575e-02 9.8140409802152023e-02 -2.4588263511931649e-02 0 0 0
30 1 1.0000000000000000e-02 1.0109999999999999e+00 -2.7491525215885635e-02 9.4684243784989700e-02 -2.6471462677461186e-02 0 0 0
43 1 1.0000000000000000e-02 1.0109999999999999e+00 -1.8848445117115642e-02 9.9500616242787485e-02 -2.5022432003701977e-02 0 0 0
21 1 1.0000000000000000e-02 1.0109999999999999e+00 -2.7566889630428928e-02 2.1911682506050766e-02 -1.2510929877176384e-02 0 0 0
88 1 1.0000000000000000e-02 1.0109999999999999e+00 -4.8662143183951199e-03 2.3984726614797877e-02 -1.8482151837619351e-02 0 0 0
1 1 1.0000000000000000e-02 1.0109999999999999e+00 -7.0045926395415322e-03 2.9803534598349852e-02 -1.0635633031777253e-02 0 0 0
76 1 1.0000000000000000e-02 1.0109999999999999e+00 -2.4520178598367987e-02 3.7503938703463531e-02 -1.5079527817333075e-02 0 0 0
11 1 1.0000000000000000e-02 1.0109999999999999e+00 -1.6586035223883768e-02 3.2009834983220152e-02 -1.2459801358058993e-02 0 0 0
37 1 1.0000000000000000e-02 1.0109999999999999e+00 -1.2574772583746549e-02 3.9029903029444278e-02 -1.8391739233802551e-02 0 0 0
50 1 1.0000000000000000e-02 1.0109999999999999e+00 -6.4137513907118159e-03 3.9901087130012149e-02 -1.0563422289716016e-02 0 0 0
42 1 1.0000000000000000e-02 1.0109999999999999e+00 -3.1563588399199337e-02 4.4717824389641371e-02 -1.0817663390834363e-02 0 0 0
47 1 1.0000000000000000e-02 1.0109999999999999e+00 -3.0134884001802885e-02 5.4665362156842846e-02 -1.1690365672903619e-02 0 0 0
77 1 1.0000000000000000e-02 1.0109999999999999e+00 -3.8997791173091184e-02 5.1560617000488543e-02 -1.5975522577334752e-02 0 0 0
45 1 1.0000000000000000e-02 1.0109999999999999e+00 -1.3551421244535945e-02 5.5415982189610989e-02 -1.3207463102229783e-02 0 0 0
70 1 1.0000000000000000e-02 1.0109999999999999e+00 -6.5210769547596869e-03 5.9208116199180684e-02 -1.9233243894767875e-02 0 0 0
89 1 1.0000000000000000e-02 1.0109999999999999e+00 -3.4843266524373633e-02 6.2650402046633080e-02 -1.6762135690389864e-02 0 0 0
27 1 1.0000000000000000e-02 1.0109999999999999e+00 -1.9321298567423744e-02 6.3294430781561453e-02 -1.5360949060296728e-02 0 0 0
74 1 1.0000000000000000e-02 1.0109999999999999e+00 -2.2956602198515412e-02 7.9868725900463636e-02 -1.5447689023561204e-02 0 0 0
33 1 1.0000000000000000e-02 1.0109999999999999e+00 -1.2515560754470795e-02 7.0853171350787530e-02 -1.2773292899454827e-02 0 0 0
2 1 1.0000000000000000e-02 1.0109999999999999e+00 -1.6426542330244787e-03 7.9336038409267201e-02 -1.8369293645789850e-02 0 0 0
54 1 1.0000000000000000e-02 1.0109999999999999e+00 -1.2738048660701821e-02 8.1665169161962786e-02 -1.2678057697142748e-02 0 0 0
46 1 1.0000000000000000e-02 1.0109999999999999e+00 -6.8129005219183681e-03 8.9718818832364045e-02 -1.2501801240202760e-02 0 0 0
4 1 1.0000000000000000e-02 1.0109999999999999e+00 -2.1344409725323511e-02 9.8833331018143011e-02 -1.1918780157304736e-02 0 0 0
52 1 1.0000000000000000e-02 1.0109999999999999e+00 -1.0393176949429098e-02 9.9005092236589085e-02 -1.1528837903457267e-02 0 0 0
35 1 1.0000000000000000e-02 1.0109999999999999e+00 -1.9861009354667634e-02 1.0054023518585260e-02 -6.0194416667403387e-03 0 0 0
26 1 1.0000000000000000e-02 1.0109999999999999e+00 -1.0060048275655160e-02 1.2786287606128625e-02 -1.6177113920532657e-03 0 0 0
79 1 1.0000000000000000e-02 1.0109999999999999e+00 -1.8177264572431493e-02 2.4654358058329003e-02 -4.8385086900776964e-03 0 0 0
28 1 1.0000000000000000e-02 1.0109999999999999e+00 -5.8228823658366272e-03 2.0638109449952344e-02 -6.2142569232760394e-03 0 0 0
8 1 1.0000000000000000e-02 1.0109999999999999e+00 -2.5705048021504081e-02 3.1967856390677785e-02 -6.8366275109948320e-03 0 0 0
18 1 1.0000000000000000e-02 1.0109999999999999e+00 -8.3087486722200708e-03 3.4063782616503141e-02 -1.6830885154526373e-03 0 0 0
95 1 1.0000000000000000e-02 1.0109999999999999e+00 -2.7982340557615022e-02 4.6250881878505158e-02 -1.6076402242546116e-03 0 0 0
22 1 1.0000000000000000e-02 1.0109999999999999e+00 -1.7047297822258927e-02 4.1070702593741112e-02 -7.9012496849590920e-03 0 0 0
93 1 1.0000000000000000e-02 1.0109999999999999e+00 -9.9122353581203634e-03 4.8535526863410811e-02 -6.9293462400627868e-03 0 0 0
31 1 1.0000000000000000e-02 1.0109999999999999e+00 -3.1101559443135741e-02 5.8016376558580697e-02 -2.1227939505422178e-03 0 0 0
75 1 1.0000000000000000e-02 1.0109999999999999e+00 -2.1182514746474142e-02 5.0194797209166052e-02 -7.7888330060964716e-03 0 0 0
114 1 1.0000000000000000e-02 1.0109999999999999e+00 -4.4244383559897665e-03 5.5165762330695485e-02 -1.6846404247333913e-03 0 0 0
51 1 1.0000000000000000e-02 1.0109999999999999e+00 -3.4270661751101834e-02 6.5939648564485948e-02 -7.3359865319143893e-03 0 0 0
55 1 1.0000000000000000e-02 1.0109999999999999e+00 -2.0514448211739644e-02 6.0639006645729604e-02 -5.4839531151675081e-03 0 0 0
3 1 1.0000000000000000e-02 1.0109999999999999e+00 -1.0945365100678537e-02 6.2569760732960916e-02 -3.3149398334444422e-03 0 0 0
68 1 1.0000000000000000e-02 1.0109999999999999e+00 -1.0101872487683083e-03 6.7948620045471267e-02 -5.6721489679213309e-03 0 0 0
90 1 1.0000000000000000e-02 1.0109999999999999e+00 -3.8450617957723442e-02 7.5518836243574389e-02 -8.9823839983991915e-03 0 0 0
65 1 1.0000000000000000e-02 1.0109999999999999e+00 -2.6517997986751831e-02 7.1890478187956852e-02 -9.4533159731278044e-03 0 0 0
91 1 1.0000000000000000e-02 1.0109999999999999e+00 -4.6904747343983538e-03 7.6522391406993573e-02 -9.2701769107864426e-03 0 0 0
94 1 1.0000000000000000e-02 1.0109999999999999e+00 -3.6537761568769915e-02 8.7773174606788948e-02 -3.7718548469112276e-03 0 0 0
49 1 1.0000000000000000e-02 1.0109999999999999e+00 -2.7828129306859295e-02 8.6188018612020204e-02 -8.4283028011343675e-03 0 0 0
110 1 1.0000000000000000e-02 1.0109999999999999e+00 -9.6678563070589103e-03 9.5391831536898078e-02 -8.1386759036832499e-04 0 0 0
150 1 1.0000000000000000e-02 1.0109999999999999e+00 -2.3218141601074729e-02 1.9427168913048510e-02 7.8631698155185326e-03 0 0 0
12 1 1.0000000000000000e-02 1.0109999999999999e+00 -2.8495666452616971e-02 1.1339489479827490e-02 8.9971942089536695e-04 0 0 0
187 1 1.0000000000000000e-02 1.0109999999999999e+00 -1.8869888945955617e-02 1.0792311439391867e-02 5.3076018449418599e-03 0 0 0
190 1 1.0000000000000000e-02 1.0109999999999999e+00 -6.1970917190172998e-03 1.3307936944154915e-02 8.7763835526165172e-03 0 0 0
160 1 1.0000000000000000e-02 1.0109999999999999e+00 -3.3141963478470884e-02 2.0975796787721990e-02 8.8454802000569807e-03 0 0 0
172 1 1.0000000000000000e-02 1.0109999999999999e+00 -2.5951801030837704e-02 2.6858719806758496e-02 1.7560179525059577e-03 0 0 0
144 1 1.0000000000000000e-02 1.0109999999999999e+00 -8.4276583072499314e-03 2.1443833176484600e-02 3.4068653492767397e-03 0 0 0
191 1 1.0000000000000000e-02 1.0109999999999999e+00 -5.2712765932740654e-03 2.8879875195557899e-02 9.3011383863036822e-03 0 0 0
112 1 1.0000000000000000e-02 1.0109999999999999e+00 -3.3803920335711779e-02 3.8943780545573237e-02 1.9580929826250571e-03 0 0 0
192 1 1.0000000000000000e-02 1.0109999999999999e+00 -3.6142935307609925e-02 3.0026405175581496e-02 5.8321885309288611e-03 0 0 0
201 1 1.0000000000000000e-02 1.0109999999999999e+00 -2.5173814669937046e-02 3.4412610100353860e-02 8.2623840824984085e-03 0 0 0
186 1 1.0000000000000000e-02 1.0109999999999999e+00 -1.5433479763096059e-02 3.5134053764166173e-02 5.2517466501386580e-03 0 0 0
175 1 1.0000000000000000e-02 1.0109999999999999e+00 -3.8701126884073109e-02 4.2596836000331470e-02 9.8746735628519097e-03 0 0 0
167 1 1.0000000000000000e-02 1.0109999999999999e+00 -1.8163526283981910e-02 4.4670702109132002e-02 6.5161181804726269e-03 0 0 0
36 1 1.0000000000000000e-02 1.0109999999999999e+00 -9.4305724393415127e-03 4.3421172766984775e-02 1.6605066063315800e-03 0 0 0
182 1 1.0000000000000000e-02 1.0109999999999999e+00 -2.2825906928333726e-02 5.4078082773624282e-02 1.8774279210464523e-03 0 0 0
153 1 1.0000000000000000e-02 1.0109999999999999e+00 -1.2972921805658028e-02 5.2693193612887927e-02 2.8770537659116488e-03 0 0 0
135 1 1.0000000000000000e-02 1.0109999999999999e+00 -4.4395576160352231e-03 5.0776149993125186e-02 8.9335273485750023e-03 0 0 0
122 1 1.0000000000000000e-02 1.0109999999999999e+00 -3.4091973823538041e-02 6.8710310761216226e-02 5.2946106927909964e-03 0 0 0
159 1 1.0000000000000000e-02 1.0109999999999999e+00 -2.5725997471546684e-02 6.1657087463973886e-02 9.9654906202529137e-03 0 0 0
129 1 1.0000000000000000e-02 1.0109999999999999e+00 -1.7709444081594590e-02 6.2519457635497031e-02 4.0501634030182965e-03 0 0 0
149 1 1.0000000000000000e-02 1.0109999999999999e+00 -5.7977789211121830e-03 6.4070084901255472e-02 5.5712017993824027e-03 0 0 0
158 1 1.0000000000000000e-02 1.0109999999999999e+00 -1.5042657132746027e-02 7.5473191023558928e-02 8.0594012551285510e-04 0 0 0
188 1 1.0000000000000000e-02 1.0109999999999999e+00 -3.6993784203423947e-03 8.6925598494056150e-02 7.7110261972223205e-04 0 0 0
169 1 1.0000000000000000e-02 1.0109999999999999e+00 -3.4983796223940815e-02 9.0695415150818359e-02 6.7865691449038781e-03 0 0 0
174 1 1.0000000000000000e-02 1.0109999999999999e+00 -1.8746125311203281e-02 9.2943485849375160e-02 3.2891291041180241e-03 0 0 0
100 1 1.0000000000000000e-02 1.0109999999999999e+00 -3.0091601078426140e-02 1.4029511080924381e-02 1.5360362695976064e-02 0 0 0
101 1 1.0000000000000000e-02 1.0109999999999999e+00 -1.0408626070515481e-02 1.8282901175253826e-02 1.6489033498031821e-02 0 0 0
106 1 1.0000000000000000e-02 1.0109999999999999e+00 -2.3957583800450166e-02 2.6648501505654534e-02 1.4741026531041987e-02 0 0 0
573 1 1.0000000000000000e-02 1.0109999999999999e+00 -6.7963069966449742e-04 2.0001095723051053e-02 1.8036329465224439e-02 0 0 0
102 1 1.0000000000000000e-02 1.0109999999999999e+00 -2.6552724474266489e-03 2.9760625315916715e-02 1.8957269796466586e-02 0 0 0
116 1 1.0000000000000000e-02 1.0109999999999999e+00 -6.6562911712826633e-03 3.7964280414378396e-02 1.3975427436630911e-02 0 0 0
123 1 1.0000000000000000e-02 1.0109999999999999e+00 -2.9361127122727534e-02 4.1071845696158980e-02 1.4436542382375813e-02 0 0 0
128 1 1.0000000000000000e-02 1.0109999999999999e+00 -2.1055472418955539e-02 4.6386477163715689e-02 1.7708369539146979e-02 0 0 0
204 1 1.0000000000000000e-02 1.0109999999999999e+00 -1.9777260302978523e-03 4.6526666964030690e-02 1.8832250298453923e-02 0 0 0
170 1 1.0000000000000000e-02 1.0109999999999999e+00 -2.9431833842284299e-02 5.0389844636657757e-02 1.0685002897059866e-02 0 0 0
171 1 1.0000000000000000e-02 1.0109999999999999e+00 -2.9312439864857244e-02 5.8135378229801880e-02 1.8723227318244367e-02 0 0 0
193 1 1.0000000000000000e-02 1.0109999999999999e+00 -1.9521846515353280e-02 5.3920665742982529e-02 1.1314410520503649e-02 0 0 0
119 1 1.0000000000000000e-02 1.0109999999999999e+00 -1.1061259569105695e-02 5.2071422552528869e-02 1.6314207970036923e-02 0 0 0
163 1 1.0000000000000000e-02 1.0109999999999999e+00 -3.0604430123597662e-02 6.8076142540054965e-02 1.5884298315278593e-02 0 0 0
184 1 1.0000000000000000e-02 1.0109999999999999e+00 -1.7613161428387737e-02 6.1084502160841068e-02 1.8025210801327369e-02 0 0 0
154 1 1.0000000000000000e-02 1.0109999999999999e+00 -2.4122177916568186e-03 6.0635586804995534e-02 1.7726667210079559e-02 0 0 0
148 1 1.0000000000000000e-02 1.0109999999999999e+00 -2.1706830292664275e-02 7.1694697752048661e-02 1.8666103268230805e-02 0 0 0
194 1 1.0000000000000000e-02 1.0109999999999999e+00 -2.7533482356218136e-02 7.9627220437828813e-02 1.5862124496734738e-02 0 0 0
162 1 1.0000000000000000e-02 1.0109999999999999e+00 -1.4770085716316907e-02 7.5712679051401902e-02 1.2688033903776106e-02 0 0 0
108 1 1.0000000000000000e-02 1.0109999999999999e+00 -4.4036171662573426e-02 8.4836975569080084e-02 1.0088861977048053e-02 0 0 0
173 1 1.0000000000000000e-02 1.0109999999999999e+00 -3.6799803795382030e-02 8.8315144265418838e-02 1.6780514223788862e-02 0 0 0
105 1 1.0000000000000000e-02 1.0109999999999999e+00 -6.9892620988456959e-03 8.5901900092565653e-02 1.0756887047805056e-02 0 0 0
120 1 1.0000000000000000e-02 1.0109999999999999e+00 -3.0247163652730617e-02 9.5515507264136532e-02 1.4496297353559253e-02 0 0 0
178 1 1.0000000000000000e-02 1.0109999999999999e+00 -2.0179212546223735e-02 9.3912380270847653e-02 1.3341317937962227e-02 0 0 0
115 1 1.0000000000000000e-02 1.0109999999999999e+00 -1.0947412909246109e-02 9.6580393420833993e-02 1.9126451276068802e-02 0 0 0
672 1 1.0000000000000000e-02 1.0109999999999999e+00 -1.7620158502857908e-03 9.3518385442862409e-02 1.4586372627764372e-02 0 0 0
127 1 1.0000000000000000e-02 1.0109999999999999e+00 -2.3222398406613824e-02 9.7243968399512576e-03 2.1215224699646252e-02 0 0 0
203 1 1.0000000000000000e-02 1.0109999999999999e+00 -1.3224287632712944e-02 9.8515792239869063e-03 2.1069952902755630e-02 0 0 0
151 1 1.0000000000000000e-02 1.0109999999999999e+00 -2.2242943394847867e-02 1.9665547024849628e-02 2.1690689900887686e-02 0 0 0
155 1 1.0000000000000000e-02 1.0109999999999999e+00 -6.9248748846232741e-03 2.4442350955599629e-02 2.7536602199214499e-02 0 0 0
199 1 1.0000000000000000e-02 1.0109999999999999e+00 -3.4799519793187801e-02 3.4079653108872544e-02 2.9728389099961859e-02 0 0 0
147 1 1.0000000000000000e-02 1.0109999999999999e+00 -2.4947047552974472e-02 3.6390414228266693e-02 2.8321367053670207e-02 0 0 0
134 1 1.0000000000000000e-02 1.0109999999999999e+00 -8.1026319443194255e-03 3.6039251478160998e-02 2.8256578826605660e-02 0 0 0
97 1 1.0000000000000000e-02 1.0109999999999999e+00 -4.0584673051333738e-02 4.7995499957111151e-02 2.0074655123814657e-02 0 0 0
132 1 1.0000000000000000e-02 1.0109999999999999e+00 -2.8849891661980914e-02 4.4433434388149388e-02 2.3840665931116257e-02 0 0 0
198 1 1.0000000000000000e-02 1.0109999999999999e+00 -1.6630405364395286e-02 4.0657165397444676e-02 2.4607143300901899e-02 0 0 0
168 1 1.0000000000000000e-02 1.0109999999999999e+00 -3.3618367242305554e-02 5.2790578965755855e-02 2.6564388600122363e-02 0 0 0
125 1 1.0000000000000000e-02 1.0109999999999999e+00 -2.3197242025395654e-02 5.4096113836970543e-02 2.5970848161396359e-02 0 0 0
142 1 1.0000000000000000e-02 1.0109999999999999e+00 -1.2956992583636024e-02 5.4941839901361998e-02 2.5703906895310168e-02 0 0 0
156 1 1.0000000000000000e-02 1.0109999999999999e+00 -2.3518753816282639e-03 5.6224998914915073e-02 2.8912857659957554e-02 0 0 0
161 1 1.0000000000000000e-02 1.0109999999999999e+00 -3.9477397848176533e-02 6.0826180998559971e-02 2.5515550043999035e-02 0 0 0
145 1 1.0000000000000000e-02 1.0109999999999999e+00 -1.5244911113520696e-02 6.7681540627809761e-02 2.5157444538149398e-02 0 0 0
107 1 1.0000000000000000e-02 1.0109999999999999e+00 -3.1415013823725642e-02 7.4490067447895450e-02 2.3513470029547276e-02 0 0 0
196 1 1.0000000000000000e-02 1.0109999999999999e+00 -9.2232847281581778e-03 7.5690144632431830e-02 2.4507291022470335e-02 0 0 0
180 1 1.0000000000000000e-02 1.0109999999999999e+00 -3.6116409066343828e-02 8.2569471583403692e-02 2.7065918036164746e-02 0 0 0
146 1 1.0000000000000000e-02 1.0109999999999999e+00 -2.6797641586423133e-02 8.6708776465390353e-02 2.3303810208481931e-02 0 0 0
141 1 1.0000000000000000e-02 1.0109999999999999e+00 -1.1116521452243242e-02 8.6751790417187391e-02 2.2883768801893814e-02 0 0 0
177 1 1.0000000000000000e-02 1.0109999999999999e+00 -6.8776309493188677e-04 8.0524820760074348e-02 2.6453944184968277e-02 0 0 0
152 1 1.0000000000000000e-02 1.0109999999999999e+00 -3.4091226555625950e-02 9.3066270322479563e-02 2.6386837413274022e-02 0 0 0
121 1 1.0000000000000000e-02 1.0109999999999999e+00 -1.9677837261289195e-02 9.5978828287773293e-02 2.3979234820289824e-02 0 0 0
189 1 1.0000000000000000e-02 1.0109999999999999e+00 -5.4702588551702831e-03 9.3400496111610345e-02 2.7773988436716184e-02 0 0 0
202 1 1.0000000000000000e-02 1.0109999999999999e+00 -2.4833326868255472e-04 1.0191284880458255e-01 2.7253258605894320e-02 0 0 0
137 1 1.0000000000000000e-02 1.0109999999999999e+00 -1.3267307374731396e-02 7.4604608504833725e-03 3.7571310687982029e-02 0 0 0
136 1 1.0000000000000000e-02 1.0109999999999999e+00 -3.8545676905241535e-02 1.8568817207838328e-02 3.0531648893880579e-02 0 0 0
179 1 1.0000000000000000e-02 1.0109999999999999e+00 -2.1446881282598081e-02 1.5978883518226284e-02 3.0952132168325305e-02 0 0 0
157 1 1.0000000000000000e-02 1.0109999999999999e+00 -1.2652715876373450e-02 1.8399671997060857e-02 3.8992179569495168e-02 0 0 0
143 1 1.0000000000000000e-02 1.0109999999999999e+00 -5.5267166048014928e-03 1.5756618960100999e-02 3.2290882376369741e-02 0 0 0
139 1 1.0000000000000000e-02 1.0109999999999999e+00 -3.1481005985238265e-02 2.1837754047597076e-02 3.6808932729848816e-02 0 0 0
164 1 1.0000000000000000e-02 1.0109999999999999e+00 -2.5313831461236655e-02 2.6656850373141930e-02 3.0584642654368482e-02 0 0 0
185 1 1.0000000000000000e-02 1.0109999999999999e+00 -3.4481342984243782e-02 3.9920739465289096e-02 3.8690554275363255e-02 0 0 0
117 1 1.0000000000000000e-02 1.0109999999999999e+00 -2.9629824845383509e-02 3.1234336547081774e-02 3.9694903205553994e-02 0 0 0
99 1 1.0000000000000000e-02 1.0109999999999999e+00 -2.1275369058408017e-02 3.6324388425443666e-02 3.7622664502599157e-02 0 0 0
205 1 1.0000000000000000e-02 1.0109999999999999e+00 -1.2580723131390477e-02 3.0346963154370171e-02 3.6471927466084492e-02 0 0 0
104 1 1.0000000000000000e-02 1.0109999999999999e+00 -3.9682980550606477e-02 4.8439128979088926e-02 3.8074507881218925e-02 0 0 0
103 1 1.0000000000000000e-02 1.0109999999999999e+00 -3.4674809611745169e-02 5.6757651430301509e-02 3.5682865768491057e-02 0 0 0
140 1 1.0000000000000000e-02 1.0109999999999999e+00 -3.3509430194307105e-02 6.7789759859987697e-02 3.0635219013927326e-02 0 0 0
195 1 1.0000000000000000e-02 1.0109999999999999e+00 -2.6255924938829913e-02 6.1196458231736806e-02 3.2613821568812276e-02 0 0 0
181 1 1.0000000000000000e-02 1.0109999999999999e+00 -1.6608720309208555e-02 6.0333723254735731e-02 3.5101211871795539e-02 0 0 0
109 1 1.0000000000000000e-02 1.0109999999999999e+00 -6.2705597250314639e-03 6.4564820541542556e-02 3.7621246336933402e-02 0 0 0
124 1 1.0000000000000000e-02 1.0109999999999999e+00 -2.7507911272871645e-02 7.9202116361801689e-02 3.3592013325293414e-02 0 0 0
130 1 1.0000000000000000e-02 1.0109999999999999e+00 -1.1815759926329257e-02 7.1851245223401167e-02 3.3574862448888049e-02 0 0 0
118 1 1.0000000000000000e-02 1.0109999999999999e+00 -4.6658578937091386e-03 7.6675578627292143e-02 3.8634859638965173e-02 0 0 0
126 1 1.0000000000000000e-02 1.0109999999999999e+00 -1.7627368158536025e-03 8.9099685977495388e-02 3.6606281930150253e-02 0 0 0
183 1 1.0000000000000000e-02 1.0109999999999999e+00 -8.5742907896845400e-03 8.3145340811750179e-02 3.2015914262937234e-02 0 0 0
197 1 1.0000000000000000e-02 1.0109999999999999e+00 -2.0966736719842911e-02 9.2430358251581898e-02 3.3239205915430316e-02 0 0 0
131 1 1.0000000000000000e-02 1.0109999999999999e+00 -1.1358081856940240e-02 9.1903433674334720e-02 3.5958792435554922e-02 0 0 0
200 1 1.0000000000000000e-02 1.0109999999999999e+00 -2.9426482804610606e-03 9.8718424321317055e-02 3.9073597996792116e-02 0 0 0
133 1 1.0000000000000000e-02 1.0109999999999999e+00 -2.2661506341590046e-02 1.8818863858205762e-02 4.0463122594718487e-02 0 0 0
165 1 1.0000000000000000e-02 1.0109999999999999e+00 -5.8833062732224842e-03 3.8998331413384844e-02 4.0958714491979707e-02 0 0 0
138 1 1.0000000000000000e-02 1.0109999999999999e+00 -1.0414360759405092e-02 5.6588660847162915e-02 4.2004140155406058e-02 0 0 0
166 1 1.0000000000000000e-02 1.0109999999999999e+00 -2.5301320121504739e-02 8.6579572548906650e-02 4.0179042657054020e-02 0 0 0
98 1 1.0000000000000000e-02 1.0109999999999999e+00 -1.3840766172833550e-02 8.3460596299275477e-02 4.0952863278338976e-02 0 0 0
826 1 1.0000000000000000e-02 1.0109999999999999e+00 -3.3156200902526712e-03 2.3602686021591071e-01 -4.2120292540037026e-02 0 0 0
246 1 1.0000000000000000e-02 1.0109999999999999e+00 -2.6592167375858684e-02 2.4053808593379261e-01 -4.0200762808060057e-02 0 0 0
297 1 1.0000000000000000e-02 1.0109999999999999e+00 -2.9425829643208879e-03 2.6191861747436029e-01 -4.0442668813626403e-02 0 0 0
237 1 1.0000000000000000e-02 1.0109999999999999e+00 -9.8007568465133168e-03 2.7936813358769469e-01 -4.1174378679984767e-02 0 0 0
240 1 1.0000000000000000e-02 1.0109999999999999e+00 -1.7248230708137229e-02 2.0590504976430485e-01 -3.8537020508259821e-02 0 0 0
292 1 1.0000000000000000e-02 1.0109999999999999e+00 -9.2321575702863264e-03 2.0663583577503439e-01 -3.2603345606918313e-02 0 0 0
311 1 1.0000000000000000e-02 1.0109999999999999e+00 -3.4374206822966789e-02 2.1749635609969897e-01 -3.0509373315651456e-02 0 0 0
275 1 1.0000000000000000e-02 1.0109999999999999e+00 -1.9710421865720808e-03 2.1648127780590187e-01 -3.9078867419123281e-02 0 0 0
236 1 1.0000000000000000e-02 1.0109999999999999e+00 -3.9074248284001453e-02 2.2644017822393470e-01 -3.0254223277521353e-02 0 0 0
252 1 1.0000000000000000e-02 1.0109999999999999e+00 -3.0738850943278970e-02 2.2066919498472706e-01 -3.9295959176461497e-02 0 0 0
259 1 1.0000000000000000e-02 1.0109999999999999e+00 -1.7332881853758177e-02 2.2334968837052627e-01 -3.2112173056090328e-02 0 0 0
287 1 1.0000000000000000e-02 1.0109999999999999e+00 -2.2568004447151373e-03 2.2647333250047330e-01 -3.9356629472542183e-02 0 0 0
253 1 1.0000000000000000e-02 1.0109999999999999e+00 -3.3150369126554315e-02 2.3165985213685528e-01 -3.6722252916338988e-02 0 0 0
274 1 1.0000000000000000e-02 1.0109999999999999e+00 -2.0324662072785438e-02 2.3758695165583807e-01 -3.2989036012414291e-02 0 0 0
305 1 1.0000000000000000e-02 1.0109999999999999e+00 -1.4064189857544851e-02 2.3048975491631299e-01 -3.8303704733430227e-02 0 0 0
279 1 1.0000000000000000e-02 1.0109999999999999e+00 -3.0698568532707970e-02 2.4909990589836856e-01 -3.6988123914695720e-02 0 0 0
300 1 1.0000000000000000e-02 1.0109999999999999e+00 -6.9215185034671688e-03 2.4150550134237037e-01 -3.3266664736775892e-02 0 0 0
221 1 1.0000000000000000e-02 1.0109999999999999e+00 -3.9867406710920580e-02 2.5829585964712121e-01 -3.7651561609307098e-02 0 0 0
250 1 1.0000000000000000e-02 1.0109999999999999e+00 -2.0256661130234908e-02 2.5032439251445437e-01 -3.6671726776599758e-02 0 0 0
293 1 1.0000000000000000e-02 1.0109999999999999e+00 -2.3588207072620580e-02 2.5959904410314666e-01 -3.0879783444001867e-02 0 0 0
239 1 1.0000000000000000e-02 1.0109999999999999e+00 -1.3850401030151701e-02 2.5732891054325685e-01 -3.0732276465665394e-02 0 0 0
298 1 1.0000000000000000e-02 1.0109999999999999e+00 -8.2621976051819330e-03 2.5179962006117956e-01 -3.6912805412210030e-02 0 0 0
234 1 1.0000000000000000e-02 1.0109999999999999e+00 -3.7740396921291566e-02 2.7962959927115111e-01 -3.3113202802007108e-02 0 0 0
283 1 1.0000000000000000e-02 1.0109999999999999e+00 -2.0585037484454824e-02 2.7143854888588115e-01 -3.0593554241523543e-02 0 0 0
289 1 1.0000000000000000e-02 1.0109999999999999e+00 -2.8062794362976404e-02 2.7481270802682833e-01 -3.6318391171507494e-02 0 0 0
290 1 1.0000000000000000e-02 1.0109999999999999e+00 -1.9692063659527709e-02 2.7908893632749893e-01 -3.9730806035024983e-02 0 0 0
296 1 1.0000000000000000e-02 1.0109999999999999e+00 -5.9733874640887225e-03 2.7134964860744021e-01 -3.6585815146968625e-02 0 0 0
230 1 1.0000000000000000e-02 1.0109999999999999e+00 -1.6729900787525561e-02 2.8538157127739699e-01 -3.1285185652115258e-02 0 0 0